Solvent Name,Energy,Free Energy,JobID,SMILES,Solvent Inchi,deltaG_Sol-Wat(kcal/mol),logP at 25C
N-HEXADECANE,-76.43051728,-76.42712734, job_126 ,CCCCCCCCCCCCCCCC,"InChI=1S/C16H34/c1-3-5-7-9-11-13-15-16-14-12-10-8-6-4-2/h3-16H2,1-2H3",5.815025501556934,-4.262113442174034
N-PENTADECANE,-76.43052092,-76.42713068, job_150 ,CCCCCCCCCCCCCCC,"InChI=1S/C15H32/c1-3-5-7-9-11-13-15-14-12-10-8-6-4-2/h3-15H2,1-2H3",5.812929621492951,-4.260577270304882
N-DODECANE,-76.4305422,-76.4271508, job_115 ,CCCCCCCCCCCC,"InChI=1S/C12H26/c1-3-5-7-9-11-12-10-8-6-4-2/h3-12H2,1-2H3",5.800304140411654,-4.251323444570825
N-NONANE,-76.4305597,-76.42716618, job_148 ,CCCCCCCCC,"InChI=1S/C9H20/c1-3-5-7-9-8-6-4-2/h3-9H2,1-2H3",5.790653051995689,-4.244249695081974
N-DECANE,-76.4305611,-76.42716881, job_96 ,CCCCCCCCCC,"InChI=1S/C10H22/c1-3-5-7-9-10-8-6-4-2/h3-10H2,1-2H3",5.789002703327359,-4.243040074721464
N-OCTANE,-76.43057089,-76.42717646, job_149 ,CCCCCCCC,"InChI=1S/C8H18/c1-3-5-7-8-6-4-2/h3-8H2,1-2H3",5.784202259476995,-4.239521597243153
N-HEPTANE,-76.43057454,-76.42717861, job_125 ,CCCCCCC,"InChI=1S/C7H16/c1-3-5-7-6-4-2/h3-7H2,1-2H3",5.7828531151268345,-4.23853274409561
N-UNDECANE,-76.43057467,-76.42718259, job_174 ,CCCCCCCCCCC,"InChI=1S/C11H24/c1-3-5-7-9-11-10-8-6-4-2/h3-11H2,1-2H3",5.7803556293052925,-4.236702215942503
N-PENTANE,-76.43058533,-76.42718547, job_152 ,CCCCC,"InChI=1S/C5H12/c1-3-5-4-2/h3-5H2,1-2H3",5.778548403387358,-4.235377612658165
N-HEXANE,-76.43058378,-76.42718637, job_127 ,CCCCCC,"InChI=1S/C6H14/c1-3-5-6-4-2/h3-6H2,1-2H3",5.777983645285217,-4.234963674129767
CYCLOHEXANE,-76.43057711,-76.42718641, job_89 ,C1CCCCC1,InChI=1S/C6H12/c1-2-4-6-5-3-1/h1-6H2,5.77795854492314,-4.234945276860386
CYCLOPENTANE,-76.43058412,-76.42719076, job_91 ,C1CCCC1,InChI=1S/C5H10/c1-2-4-5-3-1/h1-5H2,5.775228880774682,-4.232944573981843
"2,4-DIMETHYLPENTANE",-76.43062445,-76.42722789, job_34 ,CC(C)CC(C)C,"InChI=1S/C7H16/c1-6(2)5-7(3)4/h6-7H,5H2,1-4H3",5.751929471607506,-4.21586731009374
2-METHYLPENTANE,-76.43063858,-76.42724196, job_45 ,CCCC(C)C,"InChI=1S/C6H14/c1-4-5-6(2)3/h6H,4-5H2,1-3H3",5.743100419973758,-4.209396071121569
CIS-DECALIN,-76.43062388,-76.4272421, job_95 ,C1CCC2CCCCC2C1,"InChI=1S/C10H18/c1-2-6-10-8-4-3-7-9(10)5-1/h9-10H,1-8H2",5.7430125687154066,-4.2093316806852705
"CIS-1,2-DIMETHYLCYCLOHEXANE",-76.43063177,-76.42724345, job_108 ,C[C@@H]1CCCC[C@@H]1C,"InChI=1S/C8H16/c1-7-5-3-4-6-8(7)2/h7-8H,3-6H2,1-2H3/t7-,8+",5.742165431562195,-4.208710772892673
METHYLCYCLOHEXANE,-76.43064493,-76.42725503, job_142 ,CC1CCCCC1,"InChI=1S/C7H14/c1-7-5-3-2-4-6-7/h7H,2-6H2,1H3",5.7348988773473435,-4.20338476385125
DECALIN,-76.43064318,-76.4272608, job_94 ,C1CCC2CCCCC2C1,"InChI=1S/C10H18/c1-2-6-10-8-4-3-7-9(10)5-1/h9-10H,1-8H2",5.731278150416498,-4.20073095796196
TRANS-DECALIN,-76.43066197,-76.42727897, job_170 ,C1CCC2CCCCC2C1,"InChI=1S/C10H18/c1-2-6-10-8-4-3-7-9(10)5-1/h9-10H,1-8H2",5.719876311883895,-4.192373999035074
"2,2,4-TRIMETHYLPENTANE",-76.43068067,-76.42728666, job_33 ,CC(C)CC(C)(C)C,"InChI=1S/C8H18/c1-7(2)6-8(3,4)5/h7H,6H2,1-5H3",5.715050767680371,-4.188837124293916
PERFLUOROBENZENE,-76.43088686,-76.42749892, job_156 ,C1(=C(C(=C(C(=C1F)F)F)F)F)F,InChI=1S/C6F6/c7-1-2(8)4(10)6(12)5(11)3(1)9,5.5818557073327995,-4.091212022394266
1-PENTENE,-76.43099879,-76.42760962, job_30 ,CCCC=C,"InChI=1S/C5H10/c1-3-5-4-2/h3H,1,4-5H2,2H3",5.512390461036968,-4.040297583597372
TETRACHLOROETHENE,-76.43099879,-76.42762129, job_163 ,C(=C(Cl)Cl)(Cl)Cl,InChI=1S/C2Cl4/c3-1(4)2(5)6,5.505067431002985,-4.034930180696572
1-HEXENE,-76.43103123,-76.42764615, job_20 ,CCCCC=C,"InChI=1S/C6H12/c1-3-5-6-4-2/h3H,1,4-6H2,2H3",5.489467557265274,-4.023496278723845
E-2-PENTENE,-76.43106075,-76.42767489, job_52 ,CC/C=C/C,"InChI=1S/C5H10/c1-3-5-4-2/h3,5H,4H2,1-2H3/b5-3+",5.471432948602296,-4.010277841764927
CARBON TETRACHLORIDE,-76.43122397,-76.42784646, job_82 ,C(Cl)(Cl)(Cl)Cl,"InChI=1S/CCl4/c2-1(3,4)5",5.363771229477306,-3.931367360604126
"E-1,2-DICHLOROETHENE",-76.43126527,-76.42797106, job_100 ,C(=C/Cl)\Cl,InChI=1S/C2H2Cl2/c3-1-2-4/h1-2H/b2-1+,5.285583608073177,-3.8740598712201275
N-BUTYLBENZENE,-76.4313498,-76.42797819, job_78 ,CCCCC1=CC=CC=C1,"InChI=1S/C10H14/c1-2-3-7-10-8-5-4-6-9-10/h4-6,8-9H,2-3,7H2,1H3",5.281109468903058,-3.8707805582241632
P-ISOPROPYLTOLUENE,-76.43136142,-76.42798483, job_133 ,CC1=CC=C(C=C1)C(C)C,"InChI=1S/C10H14/c1-8(2)10-6-4-9(3)5-7-10/h4-8H,1-3H3",5.276942809146088,-3.86772661176178
P-XYLENE,-76.43137597,-76.428001, job_179 ,CC1=CC=C(C=C1)C,"InChI=1S/C8H10/c1-7-3-5-8(2)6-4-7/h3-6H,1-2H3",5.266795988619234,-3.8602895162320605
SEC-BUTYLBENZENE,-76.43138015,-76.42800814, job_79 ,CCC(C)C1=CC=CC=C1,"InChI=1S/C10H14/c1-3-9(2)10-7-5-4-6-8-10/h4-9H,3H2,1-2H3",5.262315574354138,-3.8570056039154834
MESITYLENE,-76.43140557,-76.42803053, job_134 ,CC1=CC(=CC(=C1)C)C,"InChI=1S/C9H12/c1-7-4-8(2)6-9(3)5-7/h4-6H,1-3H3",5.2482656478453675,-3.846707733232276
TERT-BUTYLBENZENE,-76.43140244,-76.42803054, job_80 ,CC(C)(C)C1=CC=CC=C1,"InChI=1S/C10H14/c1-10(2,3)9-7-5-4-6-8-9/h4-8H,1-3H3",5.248259372759307,-3.8467031339181985
CARBON DISULFIDE,-76.43140096,-76.42803729, job_81 ,C(=S)=S,InChI=1S/CS2/c2-1-3,5.244023687002166,-3.843598594961748
M-XYLENE,-76.43145038,-76.42807885, job_177 ,CC1=CC(=CC=C1)C,"InChI=1S/C8H10/c1-7-4-3-5-8(2)6-7/h3-6H,1-2H3",5.217944412962377,-3.82448383365634
"1,2,4-TRIMETHYLBENZENE",-76.43145908,-76.4280882, job_3 ,CC1=CC(=C(C=C1)C)C,"InChI=1S/C9H12/c1-7-4-5-8(2)9(3)6-7/h4-6H,1-3H3",5.212077203812923,-3.8201834722946844
ISOPROPYLBENZENE,-76.43146084,-76.42809029, job_132 ,CC(C)C1=CC=CC=C1,"InChI=1S/C9H12/c1-8(2)9-6-4-3-5-7-9/h3-8H,1-2H3",5.2107657100058775,-3.819222215051214
XYLENE,-76.43148707,-76.42811724, job_176 ,CC1=CC=CC=C1C,"InChI=1S/C8H10/c1-7-5-3-4-6-8(7)2/h3-6H,1-2H3",5.1938543424522035,-3.8068270558284794
BENZENE,-76.43150079,-76.42812654, job_66 ,C1=CC=CC=C1,InChI=1S/C6H6/c1-2-4-6-5-3-1/h1-6H,5.188018508759804,-3.802549691056819
ETHYLBENZENE,-76.43151486,-76.42814687, job_121 ,CCC1=CC=CC=C1,"InChI=1S/C8H10/c1-2-8-6-4-3-5-7-8/h3-7H,2H2,1H3",5.175261250782063,-3.7931992796617777
TOLUENE,-76.43153121,-76.42816116, job_169 ,CC1=CC=CC=C1,"InChI=1S/C7H8/c1-7-5-3-2-4-6-7/h2-6H,1H3",5.166294147174727,-3.7866268557210816
O-XYLENE,-76.43161719,-76.42825352, job_178 ,CC1=CC=CC=C1C,"InChI=1S/C8H10/c1-7-5-3-4-6-8(7)2/h3-6H,1-2H3",5.108337415936949,-3.7441475642361404
"1,4-DIOXANE",-76.43164636,-76.42827081, job_7 ,C1COCCO1,InChI=1S/C4H8O2/c1-2-6-4-3-5-1/h1-4H2,5.097487785325448,-3.736195345202962
TETRALIN,-76.43169995,-76.42834334, job_166 ,C1CCC2=CC=CC=C2C1,"InChI=1S/C10H12/c1-2-6-10-8-4-3-7-9(10)5-1/h1-2,5-6H,3-4,7-8H2",5.051974557557285,-3.7028364992588676
THIOPHENE,-76.43178817,-76.42843092, job_167 ,C1=CSC=C1,InChI=1S/C4H4S/c1-2-4-5-3-1/h1-4H,4.997017319337997,-3.662555681281978
1-IODOHEXADECANE,-76.43195718,-76.42861954, job_23 ,CCCCCCCCCCCCCCCCI,"InChI=1S/C16H33I/c1-2-3-4-5-6-7-8-9-10-11-12-13-14-15-16-17/h2-16H2,1H3",4.878656571756133,-3.5758033646912146
DIIODOMETHANE,-76.43197666,-76.42873712, job_106 ,C(I)I,InChI=1S/CH2I2/c2-1-3/h1H2,4.804874063539787,-3.521724595822185
HEXANOIC ACID,-76.4323462,-76.42895006, job_128 ,CCCCCC(=O)O,"InChI=1S/C6H12O2/c1-2-3-4-5-6(7)8/h2-5H2,1H3,(H,7,8)",4.67125229707258,-3.4237867403691977
1-FLUOROOCTANE,-76.43231481,-76.42898569, job_17 ,CCCCCCCCF,"InChI=1S/C8H17F/c1-2-3-4-5-6-7-8-9/h2-8H2,1H3",4.648894151403027,-3.407399374024068
1-HEXYNE,-76.43240175,-76.42906551, job_21 ,CCCCC#C,"InChI=1S/C6H10/c1-3-5-6-4-2/h1H,4-6H2,2H3",4.598806383025356,-3.3706876260130203
DIBUTYLETHER,-76.43241999,-76.42907555, job_98 ,CCCCOCCCC,"InChI=1S/C8H18O/c1-3-5-7-9-8-6-4-2/h3-8H2,1-2H3",4.592506192670204,-3.36606991178395
IODOBENZENE,-76.43249828,-76.42917717, job_129 ,C1=CC=C(C=C1)I,InChI=1S/C6H5I/c7-6-4-2-1-3-5-6/h1-5H,4.528738728084267,-3.3193316527836565
O-CHLOROTOLUENE,-76.43250895,-76.42918948, job_86 ,CC1=CC=CC=C1Cl,"InChI=1S/C7H7Cl/c1-6-4-2-3-5-7(6)8/h2-5H,1H3",4.521014092292725,-3.3136698935989
PENTANOIC ACID,-76.43258643,-76.42919424, job_153 ,CCCCC(=O)O,"InChI=1S/C5H10O2/c1-2-3-4-5(6)7/h2-4H2,1H3,(H,6,7)",4.518027149455272,-3.3114806187255392
1-BROMOOCTANE,-76.43258847,-76.42927381, job_9 ,CCCCCCCCBr,"InChI=1S/C8H17Br/c1-2-3-4-5-6-7-8-9/h2-8H2,1H3",4.468096258327205,-3.274883853638321
TRIETHYLAMINE,-76.43266138,-76.4292987, job_173 ,CCN(CC)CC,"InChI=1S/C6H15N/c1-4-7(5-2)6-3/h4-6H2,1-3H3",4.452477559313478,-3.2634361537102894
ANISOLE,-76.43265139,-76.42932795, job_64 ,COC1=CC=CC=C1,"InChI=1S/C7H8O/c1-8-7-5-3-2-4-6-7/h2-6H,1H3",4.434122921065232,-3.2499831515896376
TRICHLOROETHENE,-76.43259398,-76.42938975, job_172 ,C(=C(Cl)Cl)Cl,InChI=1S/C2HCl3/c3-1-2(4)5/h1H,4.395342864866834,-3.221559372748563
ETHYL PHENYL ETHER,-76.43275204,-76.42942867, job_120 ,CCOC1=CC=CC=C1,"InChI=1S/C8H10O/c1-2-9-8-6-4-3-5-7-8/h3-7H,2H2,1H3",4.370920214590353,-3.2036588311242777
BROMOBENZENE,-76.43275847,-76.4294473, job_69 ,C1=CC=C(C=C1)Br,InChI=1S/C6H5Br/c7-6-4-2-1-3-5-6/h1-5H,4.359229721911703,-3.1950903036125804
DIPHENYLETHER,-76.43284745,-76.42951773, job_113 ,C1=CC=C(C=C1)OC2=CC=CC=C2,InChI=1S/C12H10O/c1-3-7-11(8-4-1)13-12-9-5-2-6-10-12/h1-10H,4.315034263045563,-3.16269731423257
DIISOPROPYL ETHER,-76.43286149,-76.42952698, job_107 ,CC(C)OC(C)C,"InChI=1S/C6H14O/c1-5(2)7-6(3)4/h5-6H,1-4H3",4.309229804792382,-3.1584429460378307
CHLOROBENZENE,-76.4328393,-76.42953115, job_83 ,C1=CC=C(C=C1)Cl,InChI=1S/C6H5Cl/c7-6-4-2-1-3-5-6/h1-5H,4.306613092264352,-3.1565250308649677
1-IODOPENTANE,-76.43284404,-76.42953606, job_24 ,CCCCCI,"InChI=1S/C5H11I/c1-2-3-4-5-6/h2-5H2,1H3",4.30353202307357,-3.154266766234695
1-CHLOROHEXANE,-76.43285099,-76.42954533, job_13 ,CCCCCCCl,"InChI=1S/C6H13Cl/c1-2-3-4-5-6-7/h2-6H2,1H3",4.297715014648269,-3.150003199411802
1-BROMOPENTANE,-76.43293155,-76.42962821, job_10 ,CCCCCBr,"InChI=1S/C5H11Br/c1-2-3-4-5-6/h2-5H2,1H3",4.245707068723318,-3.1118840604042006
1-IODOBUTANE,-76.43296877,-76.42966468, job_22 ,CCCCI,"InChI=1S/C4H9I/c1-2-3-4-5/h2-4H2,1H3",4.22282181549474,-3.095110351434745
1-CHLOROPENTANE,-76.4330008,-76.42969944, job_14 ,CCCCCCl,"InChI=1S/C5H11Cl/c1-2-3-4-5-6/h2-5H2,1H3",4.201009602660229,-3.0791231256692453
IODOMETHANE,-76.43300055,-76.42970026, job_131 ,CI,InChI=1S/CH3I/c1-2/h1H3,4.200495045273325,-3.078745981673074
FLUOROBENZENE,-76.43304032,-76.42973162, job_122 ,C1=CC=C(C=C1)F,InChI=1S/C6H5F/c7-6-4-2-1-3-5-6/h1-5H,4.180816363036994,-3.0643225236742606
1-IODOPROPANE,-76.43307513,-76.42977598, job_25 ,CCCI,"InChI=1S/C3H7I/c1-2-3-4/h2-3H2,1H3",4.152980063794508,-3.0439199536167405
BUTANOIC ACID,-76.43320487,-76.42982366, job_73 ,CCCC(=O)O,"InChI=1S/C4H8O2/c1-2-3-4(5)6/h2-3H2,1H3,(H,5,6)",4.123060434677995,-3.0219904103312967
O-DICHLOROBENZENE,-76.43312873,-76.4298401, job_99 ,C1=CC=C(C(=C1)Cl)Cl,InChI=1S/C6H4Cl2/c7-5-3-1-2-4-6(5)8/h1-4H,4.1127441867115815,-3.0144291332365225
PENTYL ETHANOATE,-76.43318548,-76.42987166, job_154 ,CCCCCOC(=O)C,"InChI=1S/C7H14O2/c1-3-4-5-6-9-7(2)8/h3-6H2,1-2H3",4.092940002673784,-2.999913688897339
IODOETHANE,-76.43318392,-76.4298883, job_130 ,CCI,"InChI=1S/C2H5I/c1-2-3/h2H2,1H3",4.082498252914822,-2.9922604254687304
DIETHYL ETHER,-76.43326392,-76.42994533, job_103 ,CCOCC,"InChI=1S/C4H10O/c1-3-5-4-2/h3-4H2,1-2H3",4.046711414648854,-2.966030520821631
BUTYL ETHANOATE,-76.43326172,-76.42995099, job_76 ,CCCCOC(=O)C,"InChI=1S/C6H12O2/c1-3-4-5-8-6(2)7/h3-5H2,1-2H3",4.043159713709261,-2.963427307419872
1-BROMOPROPANE,-76.43324795,-76.42995494, job_11 ,CCCBr,"InChI=1S/C3H7Br/c1-2-3-4/h2-3H2,1H3",4.040681053154818,-2.9616105772155334
1-BROMO-2-METHYLPROPANE,-76.43325814,-76.42996415, job_8 ,CC(C)CBr,"InChI=1S/C4H9Br/c1-4(2)3-5/h4H,3H2,1-2H3",4.034901695263715,-2.9573746062901765
"1,1,1-TRICHLOROETHANE",-76.43326467,-76.42996771, job_1 ,CC(Cl)(Cl)Cl,"InChI=1S/C2H3Cl3/c1-2(3,4)5/h1H3",4.0326677632261445,-2.955737249452501
A-CHLOROTOLUENE,-76.43327088,-76.42997132, job_85 ,C1=CC=C(C=C1)CCl,"InChI=1S/C7H7Cl/c8-6-7-4-2-1-3-5-7/h1-5H,6H2",4.03040245573152,-2.954076896024831
DIETHYL SULFIDE,-76.43327771,-76.42997276, job_104 ,CCSCC,"InChI=1S/C4H10S/c1-3-5-4-2/h3-4H2,1-2H3",4.029498842777011,-2.95341459438593
THIOPHENOL,-76.4332363,-76.43004833, job_168 ,C1=CC=C(C=C1)S,"InChI=1S/C6H6S/c7-6-4-2-1-3-5-6/h1-5,7H",3.9820779876426067,-2.9186575560799723
ETHANETHIOL,-76.43334838,-76.43004979, job_116 ,CCS,"InChI=1S/C2H6S/c1-2-3/h3H,2H2,1H3",3.98116182450706,-2.917986055806381
1-CHLOROPROPANE,-76.4333555,-76.43006454, job_15 ,CCCCl,"InChI=1S/C3H7Cl/c1-2-3-4/h2-3H2,1H3",3.971906066753676,-2.9112020632808724
METHYL BENZOATE,-76.43337926,-76.43008051, job_136 ,COC(=O)C1=CC=CC=C1,"InChI=1S/C8H8O2/c1-10-8(9)7-5-3-2-4-6-7/h2-6H,1H3",3.961884748028289,-2.903856954091524
2-CHLOROBUTANE,-76.43338116,-76.4300904, job_39 ,CCC(C)Cl,"InChI=1S/C4H9Cl/c1-3-4(2)5/h4H,3H2,1-2H3",3.95567868401755,-2.8993082296128296
METHYL BUTANOATE,-76.43340071,-76.43009559, job_137 ,CCCC(=O)OC,"InChI=1S/C5H10O2/c1-3-4-5(6)7-2/h3-4H2,1-2H3",3.9524219123100655,-2.89692118410996
DIMETHYL DISULFIDE,-76.4334036,-76.43011562, job_109 ,CSSC,InChI=1S/C2H6S2/c1-3-4-2/h1-2H3,3.9398529070389827,-2.8877087522287423
DIPROPYLAMINE,-76.43333894,-76.43011708, job_114 ,CCCNCCC,"InChI=1S/C6H15N/c1-3-5-7-6-4-2/h7H,3-6H2,1-2H3",3.9389367438945184,-2.8870372519486143
PROPYL ETHANOATE,-76.4334237,-76.43011843, job_160 ,CCCOC(=O)C,"InChI=1S/C5H10O2/c1-3-4-7-5(2)6/h3-4H2,1-2H3",3.9380896067502245,-2.886416344162553
BROMOETHANE,-76.43342523,-76.43013652, job_70 ,CCBr,"InChI=1S/C2H5Br/c1-2-3/h2H2,1H3",3.926737968932858,-2.8780961797678946
2-BROMOPROPANE,-76.43347941,-76.430192, job_37 ,CC(C)Br,"InChI=1S/C3H7Br/c1-3(2)4/h3H,1-2H3",3.891923769612651,-2.8525791692472264
METHYL PROPANOATE,-76.43349696,-76.43019606, job_140 ,CCC(=O)OC,"InChI=1S/C4H8O2/c1-3-4(5)6-2/h3H2,1-2H3",3.8893760830758732,-2.8507118465618935
ETHYL ETHANOATE,-76.43352001,-76.43021869, job_118 ,CCOC(=O)C,"InChI=1S/C4H8O2/c1-3-6-4(2)5/h3H2,1-2H3",3.8751755544035595,-2.840303592268935
"1,2-DIBROMOETHANE",-76.43343044,-76.43022575, job_4 ,C(CBr)Br,InChI=1S/C2H4Br2/c3-1-2-4/h1-2H2,3.870745340862617,-2.8370564744911198
BROMOFORM,-76.43361772,-76.43027631, job_71 ,C(Br)(Br)Br,InChI=1S/CHBr3/c2-1(3)4/h1H,3.8390184858281695,-2.8138023279213376
METHYL ETHANOATE,-76.4335881,-76.43029227, job_138 ,CC(=O)OC,InChI=1S/C3H6O2/c1-3(4)5-2/h1-2H3,3.829003442188843,-2.8064618180460665
TETRAHYDROFURAN,-76.43365759,-76.43036449, job_164 ,C1CCOC1,InChI=1S/C4H8O/c1-2-4-5-3-1/h1-4H2,3.7836847422044815,-2.773245550923337
O-NITROTOLUENE,-76.4336415,-76.43037084, job_147 ,CC1=CC=CC=C1[N+](=O)[O-],"InChI=1S/C7H7NO2/c1-6-4-2-3-5-7(6)8(9)10/h2-5H,1H3",3.7797000600591915,-2.770324984654163
METHYL METHANOATE,-76.4336722,-76.43038481, job_139 ,COC=O,"InChI=1S/C2H4O2/c1-4-2-3/h2H,1H3",3.7709337593217183,-2.763899738848909
ETHYL METHANOATE,-76.43370159,-76.43041261, job_119 ,CCOC=O,"InChI=1S/C3H6O2/c1-2-5-3-4/h3H,2H2,1H3",3.7534890091229585,-2.751113637687771
"TETRAHYDROTHIOPHENE-S,S-DIOXIDE",-76.43375754,-76.43049161, job_165 ,C1CCS(=O)(=O)C1,InChI=1S/C4H8O2S/c5-7(6)3-1-2-4-7/h1-4H2,3.7039157981232744,-2.7147790336663595
PROPANOIC ACID,-76.4338955,-76.43052748, job_158 ,CCC(=O)O,"InChI=1S/C3H6O2/c1-2-3(4)5/h2H2,1H3,(H,4,5)",3.681407050299096,-2.6982812837180146
NITROBENZENE,-76.43382606,-76.43055897, job_144 ,C1=CC=C(C=C1)[N+](=O)[O-],InChI=1S/C6H5NO2/c8-7(9)6-4-2-1-3-5-6/h1-5H,3.6616467918815574,-2.683798034590444
1-NITROPROPANE,-76.43385187,-76.4305826, job_26 ,CCC[N+](=O)[O-],"InChI=1S/C3H7NO2/c1-2-3-4(5)6/h2-3H2,1H3",3.6468187542197454,-2.672929848608706
PENTANAL,-76.43391046,-76.43062728, job_151 ,CCCCC=O,"InChI=1S/C5H10O/c1-2-3-4-5-6/h5H,2-4H2,1H3",3.6187816520984795,-2.652380100409208
BENZONITRILE,-76.43390525,-76.4306362, job_67 ,C1=CC=C(C=C1)C#N,InChI=1S/C7H5N/c8-6-7-4-2-1-3-5-7/h1-5H,3.613184271819057,-2.6482775096770608
2-NITROPROPANE,-76.43393568,-76.43066773, job_47 ,CC(C)[N+](=O)[O-],"InChI=1S/C3H7NO2/c1-3(2)4(5)6/h3H,1-2H3",3.5933989130483592,-2.6337758632866453
CYCLOPENTANONE,-76.4339453,-76.43066844, job_93 ,C1CCC(=O)C1,InChI=1S/C5H8O/c6-5-3-1-2-4-5/h1-4H2,3.592953381652707,-2.633449311778004
2-OCTANONE,-76.43398911,-76.43070487, job_48 ,CCCCCCC(=O)C,"InChI=1S/C8H16O/c1-3-4-5-6-7-8(2)9/h3-7H2,1-2H3",3.570093228786205,-2.6166940000779295
"2,6-DIMETHYLPYRIDINE",-76.4340067,-76.43071386, job_36 ,CC1=NC(=CC=C1)C,"InChI=1S/C7H9N/c1-6-4-3-5-7(2)8-6/h3-5H,1-2H3",3.564451922877607,-2.612559214127633
ACETOPHENONE,-76.43400922,-76.4307361, job_62 ,CC(=O)C1=CC=CC=C1,"InChI=1S/C8H8O/c1-7(9)8-5-3-2-4-6-8/h2-6H,1H3",3.5504961227132483,-2.602330333194801
CYCLOHEXANONE,-76.43402354,-76.43074937, job_90 ,C1CCC(=O)CC1,InChI=1S/C6H10O/c7-6-4-2-1-3-5-6/h1-5H2,3.5421690782853674,-2.596227039584111
BENZALDEHYDE,-76.43402977,-76.43075737, job_65 ,C1=CC=C(C=C1)C=O,InChI=1S/C7H6O/c8-6-7-4-2-1-3-5-7/h1-6H,3.537149006289124,-2.5925475860150526
DIETHYLAMINE,-76.43395956,-76.43076937, job_105 ,CCNCC,"InChI=1S/C4H11N/c1-3-5-4-2/h5H,3-4H2,1-2H3",3.529618898290301,-2.5870284056581974
5-NONANONE,-76.43405483,-76.43077368, job_58 ,CCCCC(=O)CCCC,"InChI=1S/C9H18O/c1-3-5-7-9(10)8-6-4-2/h3-8H2,1-2H3",3.5269143344950016,-2.5850461000424994
NITROETHANE,-76.4340404,-76.43078898, job_145 ,CC[N+](=O)[O-],"InChI=1S/C2H5NO2/c1-2-3(4)5/h2H2,1H3",3.517313446794273,-2.5780091450858746
BUTANONITRILE,-76.43406723,-76.43079956, job_75 ,CCCC#N,"InChI=1S/C4H7N/c1-2-3-4-5/h2-3H2,1H3",3.510674401577837,-2.5731430677397658
4-METHYLPYRIDINE,-76.43410435,-76.43082552, job_57 ,CC1=CC=NC=C1,"InChI=1S/C6H7N/c1-6-2-4-7-5-3-6/h2-5H,1H3",3.4943842679365185,-2.5612032408982692
2-HEPTANONE,-76.43410529,-76.4308266, job_40 ,CCCCCC(=O)C,"InChI=1S/C7H14O/c1-3-4-5-6-7(2)8/h3-6H2,1-2H3",3.4937065582139493,-2.560706514664192
3-METHYLPYRIDINE,-76.43410698,-76.43082761, job_53 ,CC1=CN=CC=C1,"InChI=1S/C6H7N/c1-6-3-2-4-7-5-6/h2-5H,1H3",3.493072774129473,-2.560241983654799
PYRIDINE,-76.43411313,-76.43083594, job_162 ,C1=CC=NC=C1,InChI=1S/C5H5N/c1-2-4-6-5-3-1/h1-5H,3.4878456241594726,-2.5564107526231497
BUTANAL,-76.43411922,-76.43084361, job_72 ,CCCC=O,"InChI=1S/C4H8O/c1-2-3-4-5/h4H,2-3H2,1H3",3.48303263012807,-2.5528830765101467
2-METHYLPYRIDINE,-76.43413479,-76.43085208, job_46 ,CC1=CC=CC=N1,"InChI=1S/C6H7N/c1-6-4-2-3-5-7-6/h2-5H,1H3",3.477717628899718,-2.5489874550421985
DIBROMOMETHANE,-76.43404277,-76.43086754, job_97 ,C(Br)Br,InChI=1S/CH2Br2/c2-1-3/h1H2,3.468016339759599,-2.541876911014585
"2,4-DIMETHYLPYRIDINE",-76.43416971,-76.43088575, job_35 ,CC1=CC(=NC=C1)C,"InChI=1S/C7H9N/c1-6-3-4-8-7(2)5-6/h3-5H,1-2H3",3.4565894008649196,-2.533501554818318
4-HEPTANONE,-76.43418158,-76.43090437, job_55 ,CCCC(=O)CCC,"InChI=1S/C7H14O/c1-3-5-7(8)6-4-2/h3-6H2,1-2H3",3.4449051832901643,-2.5249376266337697
2-HEXANONE,-76.43422654,-76.4309523, job_41 ,CCCCC(=O)C,"InChI=1S/C6H12O/c1-3-4-5-6(2)7/h3-5H2,1-2H3",3.4148286769151297,-2.502893100417961
4-METHYL-2-PENTANONE,-76.43426082,-76.43098513, job_56 ,CC(C)CC(=O)C,"InChI=1S/C6H12O/c1-5(2)4-6(3)7/h5H,4H2,1-3H3",3.394227556448275,-2.4877935428249427
PROPANAL,-76.43430924,-76.43103988, job_157 ,CCC=O,"InChI=1S/C3H6O/c1-2-3-4/h3H,2H2,1H3",3.3598714386958415,-2.462612282441071
3-PENTANONE,-76.43432278,-76.43105191, job_54 ,CCC(=O)CC,"InChI=1S/C5H10O/c1-3-5(6)4-2/h3-4H2,1-2H3",3.3523225054299193,-2.4570793041354473
PROPANONITRILE,-76.43430897,-76.43105965, job_159 ,CCC#N,"InChI=1S/C3H5N/c1-2-3-4/h2H2,1H3",3.3474655857693407,-2.453519432804295
CHLOROFORM,-76.43439432,-76.43106362, job_84 ,C(Cl)(Cl)Cl,InChI=1S/CHCl3/c2-1(3)4/h1H,3.3449743750338596,-2.451693503965266
2-PENTANONE,-76.43434346,-76.43107121, job_49 ,CCCC(=O)C,"InChI=1S/C5H10O/c1-3-4-5(2)6/h3-4H2,1-2H3",3.34021158172661,-2.4482026223910256
BUTANONE,-76.43437119,-76.43110189, job_74 ,CCC(=O)C,"InChI=1S/C4H8O/c1-3-4(2)5/h3H2,1-2H3",3.320959605609916,-2.43409191794555
DIMETHYLSULFOXIDE,-76.4344757,-76.43121484, job_112 ,CS(=O)C,InChI=1S/C2H6OS/c1-4(2)3/h1-2H3,3.2500824640587314,-2.382142632827661
NITROMETHANE,-76.4343621,-76.43124227, job_146 ,C[N+](=O)[O-],InChI=1S/CH3NO2/c1-2(3)4/h1H3,3.2328698921868884,-2.3695267063919596